 Gaussian 09, Revision D.01,
 Gaussian 09:  ES64L-G09RevD.01 24-Apr-2013

 ----------------------------------------------------------------
 #P GFINPUT #b3lyp/gen 6D pseudo=read Opt freq=(noraman, HPModes)
 ----------------------------------------------------------------

 (Enter /ddn/data/hamilton6/apps/gaussian/g09D.01/g09/l101.exe)

 Symbolic Z-matrix:
 Charge =  0 Multiplicity = 1

 SCF Done:  E(RB3LYP) =  -766.496016699     A.U. after   16 cycles
 SCF Done:  E(RB3LYP) =  -766.496100493     A.U. after   10 cycles
 SCF Done:  E(RB3LYP) =  -766.496091874     A.U. after   10 cycles
 SCF Done:  E(RB3LYP) =  -766.496089043     A.U. after    9 cycles
 Optimization completed.
    -- Stationary point found.
 Normal termination of Gaussian 09 at Fri Dec 10 11:31:03 2021.

 ------------------------------------------------------------------
 #P Geom=AllCheck Guess=TCheck SCRF=Check GenChk RB3LYP/ChkBas Freq
 ------------------------------------------------------------------

 Structure from the checkpoint file:  "go.chk"

 Charge =  0 Multiplicity = 1

                         Standard orientation:
 ---------------------------------------------------------------------
 Center     Atomic      Atomic             Coordinates (Angstroms)
 Number     Number       Type             X           Y           Z
 ---------------------------------------------------------------------
      1         24           0       -0.000013    0.000042   -0.000024
      2          6           0       -0.657913   -1.486739   -1.007677
      3          6           0        0.657360    1.487290    1.007260
      4          8           0        1.053133    2.383101    1.613666
      5          8           0       -1.054229   -2.382027   -1.614499
      6          6           0       -1.479247   -0.160887    1.201928
      7          6           0        1.479591    0.160122   -1.201625
      8          8           0        2.370978    0.256266   -1.924832
      9          8           0       -2.370133   -0.258219    1.925593
     10          6           0        1.019282   -1.192366    1.094422
     11          8           0        1.633026   -1.910554    1.753492
     12          6           0       -1.019003    1.192793   -1.094419
     13          8           0       -1.632788    1.911146   -1.753265
 ---------------------------------------------------------------------

 SCF Done:  E(RB3LYP) =  -766.496089043     A.U. after    1 cycles

 The electronic state is 1-A.
 Alpha  occ. eigenvalues --  -19.24349 -19.24349 -19.24349 -19.24349 -19.24348
 Alpha  occ. eigenvalues --  -19.24348 -10.33485 -10.33485 -10.33484 -10.33482
 Alpha  occ. eigenvalues --  -10.33482 -10.33482  -2.90631  -1.85790  -1.85790
 Alpha  occ. eigenvalues --   -1.85788  -1.16263  -1.16134  -1.16134  -1.16134
 Alpha  occ. eigenvalues --   -1.16113  -1.16113  -0.62916  -0.58609  -0.58608
 Alpha  occ. eigenvalues --   -0.58607  -0.58314  -0.58314  -0.51946  -0.49493
 Alpha  occ. eigenvalues --   -0.49493  -0.49492  -0.49141  -0.49141  -0.49138
 Alpha  occ. eigenvalues --   -0.47615  -0.47614  -0.47613  -0.46943  -0.46942
 Alpha  occ. eigenvalues --   -0.46942  -0.46206  -0.46206  -0.42651  -0.42650
 Alpha  occ. eigenvalues --   -0.42645  -0.26828  -0.26827  -0.26826
 Alpha virt. eigenvalues --   -0.06374  -0.06373  -0.06369  -0.04397  -0.04393
 Alpha virt. eigenvalues --   -0.04392  -0.02657  -0.02657  -0.02656   0.00797
 Alpha virt. eigenvalues --    0.00797   0.00797   0.00883   0.00885   0.01162

 Mulliken charges:
               1
     1  Cr  -0.524398
     2  C    0.243773
     3  C    0.243762
     4  O   -0.156394
     5  O   -0.156394
     6  C    0.243823
     7  C    0.243813
     8  O   -0.156395
     9  O   -0.156397
    10  C    0.243819
    11  O   -0.156417
    12  C    0.243817
    13  O   -0.156413
 Sum of Mulliken charges =   0.00000

 Dipole moment (field-independent basis, Debye):
    X=              0.0001    Y=              0.0004    Z=             -0.0003  Tot=              0.0005
 Quadrupole moment (field-independent basis, Debye-Ang):
   XX=            -83.8225   YY=            -83.8212   ZZ=            -83.8143
   XY=             -0.0002   XZ=             -0.0003   YZ=              0.0003

  Exact polarizability: 115.413   0.002 115.399   0.000  -0.001 115.346
 Approx polarizability: 219.750   0.003 219.719   0.002   0.001 219.581

                      1                      2                      3
                      A                      A                      A
 Frequencies --     65.3089                65.6890                65.9249
 Red. masses --     15.3645                15.3653                15.3660
 Frc consts  --      0.0386                 0.0391                 0.0393
 IR Inten    --      0.0001                 0.0000                 0.0000

                      4                      5                      6
                      A                      A                      A
 Frequencies --     92.8109                93.0533                93.1284
 Red. masses --     15.5524                15.5522                15.5521
 Frc consts  --      0.0789                 0.0793                 0.0795
 IR Inten    --      0.0000                 0.0000                 0.0000

                      7                      8                      9
                      A                      A                      A
 Frequencies --    104.4090               104.6040               104.6628
 Red. masses --     17.2621                17.2583                17.2601
 Frc consts  --      0.1109                 0.1113                 0.1114
 IR Inten    --      1.5618                 1.5776                 1.5635

                     10                     11                     12
                      A                      A                      A
 Frequencies --    360.1300               360.3116               360.8047
 Red. masses --     12.7184                12.7184                12.7184
 Frc consts  --      0.9719                 0.9728                 0.9755
 IR Inten    --      0.0000                 0.0000                 0.0000

                     13                     14                     15
                      A                      A                      A
 Frequencies --    382.1082               391.1797               391.2797
 Red. masses --     14.1220                14.0866                14.0866
 Frc consts  --      1.2148                 1.2700                 1.2707
 IR Inten    --      0.0000                 0.0000                 0.0000

                     16                     17                     18
                      A                      A                      A
 Frequencies --    436.1112               436.2651               436.2908
 Red. masses --     16.2853                16.2855                16.2896
 Frc consts  --      1.8249                 1.8262                 1.8269
 IR Inten    --     32.2743                32.2742                32.3254

                     19                     20                     21
                      A                      A                      A
 Frequencies --    535.7741               536.1208               536.2844
 Red. masses --     12.3811                12.3807                12.3802
 Frc consts  --      2.0940                 2.0966                 2.0978
 IR Inten    --      0.0002                 0.0001                 0.0003

                     22                     23                     24
                      A                      A                      A
 Frequencies --    550.0257               550.3216               550.3761
 Red. masses --     12.2619                12.2620                12.2616
 Frc consts  --      2.1856                 2.1880                 2.1884
 IR Inten    --      0.0000                 0.0000                 0.0000

                     25                     26                     27
                      A                      A                      A
 Frequencies --    697.5710               697.6861               698.1079
 Red. masses --     17.2469                17.2450                17.2558
 Frc consts  --      4.9447                 4.9458                 4.9549
 IR Inten    --    199.0836               199.0467               199.1884

                     28                     29                     30
                      A                      A                      A
 Frequencies --   2072.2110              2072.4499              2072.4834
 Red. masses --     13.4167                13.4167                13.4166
 Frc consts  --     33.9440                33.9518                33.9528
 IR Inten    --   1930.7543              1930.5370              1931.3288

                     31                     32                     33
                      A                      A                      A
 Frequencies --   2093.4482              2093.6140              2185.3462
 Red. masses --     13.3576                13.3575                13.3259
 Frc consts  --     34.4907                34.4960                37.4962
 IR Inten    --      0.0005                 0.0003                 0.0000

 - Thermochemistry -
 -------------------
 Temperature   298.150 Kelvin.  Pressure   1.00000 Atm.
 Atom     1 has atomic number 24 and mass  51.94051

 Molecular mass:   219.91000 amu.
 Principal axes and moments of inertia in atomic units:
                           1         2         3
     Eigenvalues --  2772.447462772.730242773.84359
           X            1.00000   0.00000   0.00000
           Y            0.00000   1.00000   0.00000
           Z            0.00000   0.00000   1.00000
 This molecule is an asymmetric top.
 Rotational symmetry number  1.
 Warning -- assumption of classical behavior for rotation
           may cause significant error
 Rotational temperatures (Kelvin)      0.03124     0.03124     0.03123
 Rotational constants (GHZ):           0.65096     0.65089     0.65063
 Zero-point vibrational energy     133299.2 (Joules/Mol)
                                   31.85928 (Kcal/Mol)
 Warning -- explicit consideration of  24 degrees of freedom as
           vibrations may cause significant error
 Vibrational temperatures:     93.96    94.51    94.85   133.53   133.88
          (Kelvin)            133.99   150.22   150.50   150.59   518.15
                              518.41   519.12   549.77   562.82   562.96
                              627.47   627.69   627.72   770.86   771.36
                              771.59   791.36   791.79   791.87  1003.65
                             1003.81  1004.42  2981.45  2981.79  2981.84
                             3012.00  3012.24  3144.22

 Zero-point correction=                           0.050771 (Hartree/Particle)
 Thermal correction to Energy=                    0.064781
 Thermal correction to Enthalpy=                  0.065725
 Thermal correction to Gibbs Free Energy=         0.008513
 Sum of electronic and zero-point Energies=           -766.445318
 Sum of electronic and thermal Energies=              -766.431308
 Sum of electronic and thermal Enthalpies=            -766.430364
 Sum of electronic and thermal Free Energies=         -766.487576

                     E (Thermal)             CV                S
                      KCal/Mol        Cal/Mol-Kelvin    Cal/Mol-Kelvin
 Total                   40.651             46.373            120.414
 Electronic               0.000              0.000              0.000
 Translational            0.889              2.981             42.067
 Rotational               0.889              2.981             31.434
 Vibrational             38.873             40.411             46.913
 Vibration     1          0.597              1.971              4.290
 Vibration     2          0.597              1.971              4.279
 Vibration     3          0.597              1.971              4.271
 Vibration     4          0.602              1.954              3.600
 Vibration     5          0.602              1.954              3.595
 Vibration     6          0.602              1.954              3.593
 Vibration     7          0.605              1.946              3.370
 Vibration     8          0.605              1.946              3.367
 Vibration     9          0.605              1.945              3.366
 Vibration    10          0.735              1.554              1.122
 Vibration    11          0.735              1.554              1.121
 Vibration    12          0.735              1.553              1.119
 Vibration    13          0.752              1.508              1.031
 Vibration    14          0.759              1.489              0.996
 Vibration    15          0.759              1.489              0.995
 Vibration    16          0.797              1.391              0.839
 Vibration    17          0.797              1.391              0.838
 Vibration    18          0.797              1.391              0.838
 Vibration    19          0.891              1.171              0.574
 Vibration    20          0.891              1.170              0.574
 Vibration    21          0.891              1.170              0.573
 Vibration    22          0.905              1.140              0.544
 Vibration    23          0.906              1.139              0.544
 Vibration    24          0.906              1.139              0.543

 Normal termination of Gaussian 09 at Fri Dec 10 11:32:12 2021.
